
The number of threads in each node for OpenMP parallelization is 1.


*******************************************************
*******************************************************
 Welcome to OpenMX   Ver. 3.8                           
 Copyright (C), 2002-2014, T. Ozaki                    
 OpenMX comes with ABSOLUTELY NO WARRANTY.             
 This is free software, and you are welcome to         
 redistribute it under the constitution of the GNU-GPL.
*******************************************************
*******************************************************

Failure of saving ./fe_rst/fe.crst_check
Failure of saving ./fe_rst/fe.crst_check
Failure of saving ./fe_rst/fe.crst_check
Failure of saving ./fe_rst/fe.crst_check
Failure of saving ./fe_rst/fe.crst_check
Failure of saving ./fe_rst/fe.crst_check
Failure of saving ./fe_rst/fe.crst_check
Failure of saving ./fe_rst/fe.crst_check
Failure of saving ./fe_rst/fe.crst_check
Failure of saving ./fe_rst/fe.crst_check
Failure of saving ./fe_rst/fe.crst_check
Failure of saving ./fe_rst/fe.crst_check
Failure of saving ./fe_rst/fe.crst_check
Failure of saving ./fe_rst/fe.crst_check
Failure of saving ./fe_rst/fe.crst_check
Failure of saving ./fe_rst/fe.crst_check
Failure of saving ./fe_rst/fe.crst_check
Failure of saving ./fe_rst/fe.crst_check
Failure of saving ./fe_rst/fe.crst_check
Failure of saving ./fe_rst/fe.crst_check
Failure of saving ./fe_rst/fe.crst_check
Failure of saving ./fe_rst/fe.crst_check
Failure of saving ./fe_rst/fe.crst_check


<Input_std>  Your input file was normally read.
<Input_std>  The system includes 1 species and 2 atoms.

*******************************************************
                     PAO and VPS                       
*******************************************************

Failure of saving ./fe_rst/fe.crst_check
Failure of saving ./fe_rst/fe.crst_check
Failure of saving ./fe_rst/fe.crst_check
Failure of saving ./fe_rst/fe.crst_check
Failure of saving ./fe_rst/fe.crst_check
<SetPara_DFT>  PAOs of species Fe were normally found.
Could not open a file ./fe_rst/fe.ftpao in FT_PAO
Could not open a file ./fe_rst/fe.ftpao in FT_PAO
Could not open a file ./fe_rst/fe.ftpao in FT_PAO
Could not open a file ./fe_rst/fe.ftpao in FT_PAO
Could not open a file ./fe_rst/fe.ftpao in FT_PAO
Could not open a file ./fe_rst/fe.ftpao in FT_PAO
Could not open a file ./fe_rst/fe.ftpao in FT_PAO
Could not open a file ./fe_rst/fe.ftpao in FT_PAO
Could not open a file ./fe_rst/fe.ftpao in FT_PAO
Could not open a file ./fe_rst/fe.ftpao in FT_PAO
Could not open a file ./fe_rst/fe.ftpao in FT_PAO
Could not open a file ./fe_rst/fe.ftpao in FT_PAO
Could not open a file ./fe_rst/fe.ftpao in FT_PAO
Could not open a file ./fe_rst/fe.ftpao in FT_PAO
Could not open a file ./fe_rst/fe.ftpao in FT_PAO
Could not open a file ./fe_rst/fe.ftpao in FT_PAO
Could not open a file ./fe_rst/fe.ftpao in FT_PAO
Could not open a file ./fe_rst/fe.ftpao in FT_PAO
Could not open a file ./fe_rst/fe.ftpao in FT_PAO
<SetPara_DFT>  VPSs of species Fe were normally found.
               Fe_PBE13S.vps is j-dependent.
               In case of scf.SpinOrbit.Coupling=off,
               j-dependent pseudo potentials are averaged by j-degeneracy,
               which corresponds to a scalar relativistic treatment.

*******************************************************
     Fourier transform of PAO and projectors of VNL    
*******************************************************

<FT_PAO>          Fourier transform of pseudo atomic orbitals
Could not open a file ./fe_rst/fe.ftpao in FT_PAO
Could not open a file ./fe_rst/fe.ftpao in FT_PAO
Could not open a file ./fe_rst/fe.ftpao in FT_PAO
Could not open a file ./fe_rst/fe.ftpao in FT_PAO
Could not open a file ./fe_rst/fe.ftpao in FT_PAO
Could not open a file ./fe_rst/fe.ftpao in FT_PAO
Could not open a file ./fe_rst/fe.ftpao in FT_PAO
Could not open a file ./fe_rst/fe.ftpao in FT_PAO
Could not open a file ./fe_rst/fe.ftpao in FT_PAO
Could not open a file ./fe_rst/fe.ftnlp in FT_NLP
Could not open a file ./fe_rst/fe.ftnlp in FT_NLP
Could not open a file ./fe_rst/fe.ftnlp in FT_NLP
Could not open a file ./fe_rst/fe.ftnlp in FT_NLP
Could not open a file ./fe_rst/fe.ftnlp in FT_NLP
Could not open a file ./fe_rst/fe.ftnlp in FT_NLP
Could not open a file ./fe_rst/fe.ftnlp in FT_NLP
Could not open a file ./fe_rst/fe.ftnlp in FT_NLP
Could not open a file ./fe_rst/fe.ftnlp in FT_NLP
Could not open a file ./fe_rst/fe.ftnlp in FT_NLP
Could not open a file ./fe_rst/fe.ftnlp in FT_NLP
Could not open a file ./fe_rst/fe.ftnlp in FT_NLP
Could not open a file ./fe_rst/fe.ftnlp in FT_NLP
Could not open a file ./fe_rst/fe.ftnlp in FT_NLP
Could not open a file ./fe_rst/fe.ftnlp in FT_NLP
Could not open a file ./fe_rst/fe.ftnlp in FT_NLP
Could not open a file ./fe_rst/fe.ftnlp in FT_NLP
Could not open a file ./fe_rst/fe.ftnlp in FT_NLP
Could not open a file ./fe_rst/fe.ftnlp in FT_NLP
Could not open a file ./fe_rst/fe.ftnlp in FT_NLP
Could not open a file ./fe_rst/fe.ftnlp in FT_NLP
Could not open a file ./fe_rst/fe.ftnlp in FT_NLP
Could not open a file ./fe_rst/fe.ftnlp in FT_NLP
Could not open a file ./fe_rst/fe.ftnlp in FT_NLP
Could not open a file ./fe_rst/fe.ftnlp in FT_NLP
Could not open a file ./fe_rst/fe.ftnlp in FT_NLP
Could not open a file ./fe_rst/fe.ftnlp in FT_NLP
<FT_NLP>          Fourier transform of non-local projectors
Could not open a file ./fe_rst/fe.ftnlp in FT_NLP
Could not open a file ./fe_rst/fe.ftPEvna in FT_ProExpn_VNA
Could not open a file ./fe_rst/fe.ftPEvna in FT_ProExpn_VNA
Could not open a file ./fe_rst/fe.ftPEvna in FT_ProExpn_VNA
Could not open a file ./fe_rst/fe.ftPEvna in FT_ProExpn_VNA
Could not open a file ./fe_rst/fe.ftPEvna in FT_ProExpn_VNA
Could not open a file ./fe_rst/fe.ftPEvna in FT_ProExpn_VNA
Could not open a file ./fe_rst/fe.ftPEvna in FT_ProExpn_VNA
Could not open a file ./fe_rst/fe.ftPEvna in FT_ProExpn_VNA
Could not open a file ./fe_rst/fe.ftPEvna in FT_ProExpn_VNA
Could not open a file ./fe_rst/fe.ftPEvna in FT_ProExpn_VNA
Could not open a file ./fe_rst/fe.ftPEvna in FT_ProExpn_VNA
Could not open a file ./fe_rst/fe.ftPEvna in FT_ProExpn_VNA
Could not open a file ./fe_rst/fe.ftPEvna in FT_ProExpn_VNA
Could not open a file ./fe_rst/fe.ftPEvna in FT_ProExpn_VNA
Could not open a file ./fe_rst/fe.ftPEvna in FT_ProExpn_VNA
Could not open a file ./fe_rst/fe.ftPEvna in FT_ProExpn_VNA
Could not open a file ./fe_rst/fe.ftPEvna in FT_ProExpn_VNA
Could not open a file ./fe_rst/fe.ftPEvna in FT_ProExpn_VNA
Could not open a file ./fe_rst/fe.ftPEvna in FT_ProExpn_VNA
Could not open a file ./fe_rst/fe.ftPEvna in FT_ProExpn_VNA
Could not open a file ./fe_rst/fe.ftPEvna in FT_ProExpn_VNA
Could not open a file ./fe_rst/fe.ftPEvna in FT_ProExpn_VNA
Could not open a file ./fe_rst/fe.ftPEvna in FT_ProExpn_VNA
Could not open a file ./fe_rst/fe.ftPEvna in FT_ProExpn_VNA
Could not open a file ./fe_rst/fe.ftPEvna in FT_ProExpn_VNA
Could not open a file ./fe_rst/fe.ftPEvna in FT_ProExpn_VNA
Could not open a file ./fe_rst/fe.ftPEvna in FT_ProExpn_VNA
<FT_ProExpn_VNA>  Fourier transform of VNA separable projectors
Could not open a file ./fe_rst/fe.ftPEvna in FT_ProExpn_VNA
Could not open a file ./fe_rst/fe.ftCvna in FT_VNA
Could not open a file ./fe_rst/fe.ftCvna in FT_VNA
Could not open a file ./fe_rst/fe.ftCvna in FT_VNA
Could not open a file ./fe_rst/fe.ftCvna in FT_VNA
Could not open a file ./fe_rst/fe.ftCvna in FT_VNA
Could not open a file ./fe_rst/fe.ftCvna in FT_VNA
Could not open a file ./fe_rst/fe.ftCvna in FT_VNA
Could not open a file ./fe_rst/fe.ftCvna in FT_VNA
Could not open a file ./fe_rst/fe.ftCvna in FT_VNA
Could not open a file ./fe_rst/fe.ftCvna in FT_VNA
Could not open a file ./fe_rst/fe.ftCvna in FT_VNA
Could not open a file ./fe_rst/fe.ftCvna in FT_VNA
Could not open a file ./fe_rst/fe.ftCvna in FT_VNA
Could not open a file ./fe_rst/fe.ftCvna in FT_VNA
Could not open a file ./fe_rst/fe.ftCvna in FT_VNA
Could not open a file ./fe_rst/fe.ftCvna in FT_VNA
Could not open a file ./fe_rst/fe.ftCvna in FT_VNA
Could not open a file ./fe_rst/fe.ftCvna in FT_VNA
Could not open a file ./fe_rst/fe.ftCvna in FT_VNA
Could not open a file ./fe_rst/fe.ftCvna in FT_VNA
Could not open a file ./fe_rst/fe.ftCvna in FT_VNA
Could not open a file ./fe_rst/fe.ftCvna in FT_VNA
Could not open a file ./fe_rst/fe.ftCvna in FT_VNA
Could not open a file ./fe_rst/fe.ftCvna in FT_VNA
Could not open a file ./fe_rst/fe.ftCvna in FT_VNA
Could not open a file ./fe_rst/fe.ftCvna in FT_VNA
Could not open a file ./fe_rst/fe.ftCvna in FT_VNA
<FT_VNA>          Fourier transform of VNA potentials
Could not open a file ./fe_rst/fe.ftCvna in FT_VNA
Could not open a file ./fe_rst/fe.ftProPAO in FT_ProductPAO
Could not open a file ./fe_rst/fe.ftProPAO in FT_ProductPAO
Could not open a file ./fe_rst/fe.ftProPAO in FT_ProductPAO
Could not open a file ./fe_rst/fe.ftProPAO in FT_ProductPAO
Could not open a file ./fe_rst/fe.ftProPAO in FT_ProductPAO
<FT_ProductPAO>   Fourier transform of product of PAOs
Could not open a file ./fe_rst/fe.ftProPAO in FT_ProductPAO
Could not open a file ./fe_rst/fe.ftProPAO in FT_ProductPAO
Could not open a file ./fe_rst/fe.ftProPAO in FT_ProductPAO
Could not open a file ./fe_rst/fe.ftProPAO in FT_ProductPAO
Could not open a file ./fe_rst/fe.ftProPAO in FT_ProductPAO
Could not open a file ./fe_rst/fe.ftProPAO in FT_ProductPAO
Could not open a file ./fe_rst/fe.ftProPAO in FT_ProductPAO
Could not open a file ./fe_rst/fe.ftProPAO in FT_ProductPAO
Could not open a file ./fe_rst/fe.ftProPAO in FT_ProductPAO
Could not open a file ./fe_rst/fe.ftProPAO in FT_ProductPAO
Could not open a file ./fe_rst/fe.ftProPAO in FT_ProductPAO
Could not open a file ./fe_rst/fe.ftProPAO in FT_ProductPAO
Could not open a file ./fe_rst/fe.ftProPAO in FT_ProductPAO
Could not open a file ./fe_rst/fe.ftProPAO in FT_ProductPAO
Could not open a file ./fe_rst/fe.ftProPAO in FT_ProductPAO
Could not open a file ./fe_rst/fe.ftProPAO in FT_ProductPAO
Could not open a file ./fe_rst/fe.ftProPAO in FT_ProductPAO
Could not open a file ./fe_rst/fe.ftProPAO in FT_ProductPAO
Could not open a file ./fe_rst/fe.ftProPAO in FT_ProductPAO
Could not open a file ./fe_rst/fe.ftProPAO in FT_ProductPAO
Could not open a file ./fe_rst/fe.ftProPAO in FT_ProductPAO
Could not open a file ./fe_rst/fe.ftProPAO in FT_ProductPAO
Could not open a file ./fe_rst/fe.ftProPAO in FT_ProductPAO

*******************************************************
  Allocation of atoms to proccesors at MD_iter=    1     
*******************************************************

 proc =   0  # of atoms=   1  estimated weight=         1.00000
 proc =   1  # of atoms=   1  estimated weight=         1.00000
 proc =   2  # of atoms=   0  estimated weight=         0.00000
 proc =   3  # of atoms=   0  estimated weight=         0.00000
 proc =   4  # of atoms=   0  estimated weight=         0.00000
 proc =   5  # of atoms=   0  estimated weight=         0.00000
 proc =   6  # of atoms=   0  estimated weight=         0.00000
 proc =   7  # of atoms=   0  estimated weight=         0.00000
 proc =   8  # of atoms=   0  estimated weight=         0.00000
 proc =   9  # of atoms=   0  estimated weight=         0.00000
 proc =  10  # of atoms=   0  estimated weight=         0.00000
 proc =  11  # of atoms=   0  estimated weight=         0.00000
 proc =  12  # of atoms=   0  estimated weight=         0.00000
 proc =  13  # of atoms=   0  estimated weight=         0.00000
 proc =  14  # of atoms=   0  estimated weight=         0.00000
 proc =  15  # of atoms=   0  estimated weight=         0.00000
 proc =  16  # of atoms=   0  estimated weight=         0.00000
 proc =  17  # of atoms=   0  estimated weight=         0.00000
 proc =  18  # of atoms=   0  estimated weight=         0.00000
 proc =  19  # of atoms=   0  estimated weight=         0.00000
 proc =  20  # of atoms=   0  estimated weight=         0.00000
 proc =  21  # of atoms=   0  estimated weight=         0.00000
 proc =  22  # of atoms=   0  estimated weight=         0.00000
 proc =  23  # of atoms=   0  estimated weight=         0.00000
 proc =  24  # of atoms=   0  estimated weight=         0.00000
 proc =  25  # of atoms=   0  estimated weight=         0.00000
 proc =  26  # of atoms=   0  estimated weight=         0.00000
 proc =  27  # of atoms=   0  estimated weight=         0.00000




*******************************************************
        Analysis of neighbors and setting of grids        
*******************************************************

TFNAN=     104   Average FNAN=  52.00000
TSNAN=       0   Average SNAN=   0.00000
<truncation> CpyCell= 1 ct_AN=   1 FNAN SNAN  52   0
<truncation> CpyCell= 1 ct_AN=   2 FNAN SNAN  52   0
TFNAN=     224   Average FNAN= 112.00000
TSNAN=       0   Average SNAN=   0.00000
<truncation> CpyCell= 2 ct_AN=   1 FNAN SNAN 112   0
<truncation> CpyCell= 2 ct_AN=   2 FNAN SNAN 112   0
TFNAN=     224   Average FNAN= 112.00000
TSNAN=       0   Average SNAN=   0.00000
<truncation> CpyCell= 3 ct_AN=   1 FNAN SNAN 112   0
<truncation> CpyCell= 3 ct_AN=   2 FNAN SNAN 112   0
TFNAN=     224   Average FNAN= 112.00000
TSNAN=       0   Average SNAN=   0.00000
<truncation> CpyCell= 3 ct_AN=   1 FNAN SNAN 112   0
<truncation> CpyCell= 3 ct_AN=   2 FNAN SNAN 112   0
<Check_System> The system is bulk.
lattice vectors (bohr)
A  =  5.260808179605,  0.000000000000,  0.000000000000
B  =  0.000000000000,  5.260808179605,  0.000000000000
C  =  0.000000000000,  0.000000000000,  5.260808179605
reciprocal lattice vectors (bohr^-1)
RA =  1.194338415823,  0.000000000000,  0.000000000000
RB =  0.000000000000,  1.194338415823,  0.000000000000
RC =  0.000000000000,  0.000000000000,  1.194338415823
Grid_Origin  0.000000000000  0.000000000000  0.000000000000
Cell_Volume =    145.598667477409 (Bohr^3)
GridVol     =      0.003120684745 (Bohr^3)
Grid_Origin  0.000000000000  0.000000000000  0.000000000000
Cell_Volume =    145.598667477409 (Bohr^3)
GridVol     =      0.003120684745 (Bohr^3)
<UCell_Box> Info. of cutoff energy and num. of grids
lattice vectors (bohr)
A  =  5.260808179605,  0.000000000000,  0.000000000000
B  =  0.000000000000,  5.260808179605,  0.000000000000
C  =  0.000000000000,  0.000000000000,  5.260808179605
reciprocal lattice vectors (bohr^-1)
RA =  1.194338415823,  0.000000000000,  0.000000000000
RB =  0.000000000000,  1.194338415823,  0.000000000000
RC =  0.000000000000,  0.000000000000,  1.194338415823
Required cutoff energy (Ryd) for 3D-grids = 500.0000
    Used cutoff energy (Ryd) for 3D-grids = 462.1679, 462.1679, 462.1679
Num. of grids of a-, b-, and c-axes = 36, 36, 36
Grid_Origin  0.000000000000  0.000000000000  0.000000000000
Cell_Volume =    145.598667477409 (Bohr^3)
GridVol     =      0.003120684745 (Bohr^3)
Cell vectors (bohr) of the grid cell (gtv)
  gtv_a =  0.146133560545,  0.000000000000,  0.000000000000
  gtv_b =  0.000000000000,  0.146133560545,  0.000000000000
  gtv_c =  0.000000000000,  0.000000000000,  0.146133560545
  |gtv_a| =  0.146133560545
  |gtv_b| =  0.146133560545
  |gtv_c| =  0.146133560545
Num. of grids overlapping with atom    1 = 289715
Num. of grids overlapping with atom    2 = 289715

*******************************************************
             SCF calculation at MD = 1                
*******************************************************

<MD= 1>  Calculation of the overlap matrix
<MD= 1>  Calculation of the nonlocal matrix
<MD= 1>  Calculation of the VNA projector matrix

******************* MD= 1  SCF= 1 *******************
Failed (2) in reading the restart file ./fe_rst/fe.rst2
Failed (3) in reading the restart files
Failed (2) in reading the restart file ./fe_rst/fe.rst1
<Restart>  Could not find restart files
<Band>  Solving the eigenvalue problem...
 KGrids1:  -0.47500  -0.42500  -0.37500  -0.32500  -0.27500  -0.22500  -0.17500  -0.12500  -0.07500  -0.02500   0.02500   0.07500   0.12500   0.17500   0.22500   0.27500   0.32500   0.37500   0.42500   0.47500 
 KGrids2:  -0.47500  -0.42500  -0.37500  -0.32500  -0.27500  -0.22500  -0.17500  -0.12500  -0.07500  -0.02500   0.02500   0.07500   0.12500   0.17500   0.22500   0.27500   0.32500   0.37500   0.42500   0.47500 
 KGrids3:  -0.47500  -0.42500  -0.37500  -0.32500  -0.27500  -0.22500  -0.17500  -0.12500  -0.07500  -0.02500   0.02500   0.07500   0.12500   0.17500   0.22500   0.27500   0.32500   0.37500   0.42500   0.47500 
<Band_DFT>  Eigen, time=0.496062
<Band_DFT>  DM, time=1.818705
    1   Fe  MulP   7.9829   6.0171 sum  14.0000 diff   1.9658
    2   Fe  MulP   7.9829   6.0171 sum  14.0000 diff   1.9658
 Sum of MulP: up   =    15.96578 down          =    12.03422
              total=    28.00000 ideal(neutral)=    28.00000
<DFT>  Total Spin Moment (muB) =  3.931566562582
<DFT>  Mixing_weight= 0.020000000000
<DFT>  Uele   =  -29.326014838693  dUele     =   1.000000000000
<DFT>  NormRD =    1.000000000000  Criterion =   0.000000001000

******************* MD= 1  SCF= 2 *******************
<Poisson>  Poisson's equation using FFT...
<Set_Hamiltonian>  Hamiltonian matrix for VNA+dVH+Vxc...
<Band>  Solving the eigenvalue problem...
 KGrids1:  -0.47500  -0.42500  -0.37500  -0.32500  -0.27500  -0.22500  -0.17500  -0.12500  -0.07500  -0.02500   0.02500   0.07500   0.12500   0.17500   0.22500   0.27500   0.32500   0.37500   0.42500   0.47500 
 KGrids2:  -0.47500  -0.42500  -0.37500  -0.32500  -0.27500  -0.22500  -0.17500  -0.12500  -0.07500  -0.02500   0.02500   0.07500   0.12500   0.17500   0.22500   0.27500   0.32500   0.37500   0.42500   0.47500 
 KGrids3:  -0.47500  -0.42500  -0.37500  -0.32500  -0.27500  -0.22500  -0.17500  -0.12500  -0.07500  -0.02500   0.02500   0.07500   0.12500   0.17500   0.22500   0.27500   0.32500   0.37500   0.42500   0.47500 
<Band_DFT>  Eigen, time=0.514788
<Band_DFT>  DM, time=1.687030
    1   Fe  MulP   7.9884   6.0116 sum  14.0000 diff   1.9768
    2   Fe  MulP   7.9884   6.0116 sum  14.0000 diff   1.9768
 Sum of MulP: up   =    15.97677 down          =    12.02323
              total=    28.00000 ideal(neutral)=    28.00000
<DFT>  Total Spin Moment (muB) =  3.953547593969
<DFT>  Mixing_weight= 0.053495647789
<DFT>  Uele   =  -29.486701540352  dUele     =   0.160686701659
<DFT>  NormRD =    0.791288702503  Criterion =   0.000000001000

******************* MD= 1  SCF= 3 *******************
<Poisson>  Poisson's equation using FFT...
<Set_Hamiltonian>  Hamiltonian matrix for VNA+dVH+Vxc...
<Band>  Solving the eigenvalue problem...
 KGrids1:  -0.47500  -0.42500  -0.37500  -0.32500  -0.27500  -0.22500  -0.17500  -0.12500  -0.07500  -0.02500   0.02500   0.07500   0.12500   0.17500   0.22500   0.27500   0.32500   0.37500   0.42500   0.47500 
 KGrids2:  -0.47500  -0.42500  -0.37500  -0.32500  -0.27500  -0.22500  -0.17500  -0.12500  -0.07500  -0.02500   0.02500   0.07500   0.12500   0.17500   0.22500   0.27500   0.32500   0.37500   0.42500   0.47500 
 KGrids3:  -0.47500  -0.42500  -0.37500  -0.32500  -0.27500  -0.22500  -0.17500  -0.12500  -0.07500  -0.02500   0.02500   0.07500   0.12500   0.17500   0.22500   0.27500   0.32500   0.37500   0.42500   0.47500 
<Band_DFT>  Eigen, time=0.658621
<Band_DFT>  DM, time=1.865990
    1   Fe  MulP   8.0080   5.9920 sum  14.0000 diff   2.0160
    2   Fe  MulP   8.0080   5.9920 sum  14.0000 diff   2.0160
 Sum of MulP: up   =    16.01595 down          =    11.98405
              total=    28.00000 ideal(neutral)=    28.00000
<DFT>  Total Spin Moment (muB) =  4.031907281485
<DFT>  Mixing_weight= 0.214962136751
<DFT>  Uele   =  -30.049760415357  dUele     =   0.563058875005
<DFT>  NormRD =    0.685796368239  Criterion =   0.000000001000

******************* MD= 1  SCF= 4 *******************
<Poisson>  Poisson's equation using FFT...
<Set_Hamiltonian>  Hamiltonian matrix for VNA+dVH+Vxc...
<Band>  Solving the eigenvalue problem...
 KGrids1:  -0.47500  -0.42500  -0.37500  -0.32500  -0.27500  -0.22500  -0.17500  -0.12500  -0.07500  -0.02500   0.02500   0.07500   0.12500   0.17500   0.22500   0.27500   0.32500   0.37500   0.42500   0.47500 
 KGrids2:  -0.47500  -0.42500  -0.37500  -0.32500  -0.27500  -0.22500  -0.17500  -0.12500  -0.07500  -0.02500   0.02500   0.07500   0.12500   0.17500   0.22500   0.27500   0.32500   0.37500   0.42500   0.47500 
 KGrids3:  -0.47500  -0.42500  -0.37500  -0.32500  -0.27500  -0.22500  -0.17500  -0.12500  -0.07500  -0.02500   0.02500   0.07500   0.12500   0.17500   0.22500   0.27500   0.32500   0.37500   0.42500   0.47500 
<Band_DFT>  Eigen, time=0.750057
<Band_DFT>  DM, time=1.838807
    1   Fe  MulP   8.0256   5.9744 sum  14.0000 diff   2.0511
    2   Fe  MulP   8.0256   5.9744 sum  14.0000 diff   2.0511
 Sum of MulP: up   =    16.05114 down          =    11.94886
              total=    28.00000 ideal(neutral)=    28.00000
<DFT>  Total Spin Moment (muB) =  4.102275878700
<DFT>  Mixing_weight= 0.271537846473
<DFT>  Uele   =  -30.371549970419  dUele     =   0.321789555062
<DFT>  NormRD =    0.313036516166  Criterion =   0.000000001000

******************* MD= 1  SCF= 5 *******************
<Poisson>  Poisson's equation using FFT...
<Set_Hamiltonian>  Hamiltonian matrix for VNA+dVH+Vxc...
<Band>  Solving the eigenvalue problem...
 KGrids1:  -0.47500  -0.42500  -0.37500  -0.32500  -0.27500  -0.22500  -0.17500  -0.12500  -0.07500  -0.02500   0.02500   0.07500   0.12500   0.17500   0.22500   0.27500   0.32500   0.37500   0.42500   0.47500 
 KGrids2:  -0.47500  -0.42500  -0.37500  -0.32500  -0.27500  -0.22500  -0.17500  -0.12500  -0.07500  -0.02500   0.02500   0.07500   0.12500   0.17500   0.22500   0.27500   0.32500   0.37500   0.42500   0.47500 
 KGrids3:  -0.47500  -0.42500  -0.37500  -0.32500  -0.27500  -0.22500  -0.17500  -0.12500  -0.07500  -0.02500   0.02500   0.07500   0.12500   0.17500   0.22500   0.27500   0.32500   0.37500   0.42500   0.47500 
<Band_DFT>  Eigen, time=0.654293
<Band_DFT>  DM, time=1.783974
    1   Fe  MulP   8.0368   5.9632 sum  14.0000 diff   2.0737
    2   Fe  MulP   8.0368   5.9632 sum  14.0000 diff   2.0737
 Sum of MulP: up   =    16.07367 down          =    11.92633
              total=    28.00000 ideal(neutral)=    28.00000
<DFT>  Total Spin Moment (muB) =  4.147338426709
<DFT>  Mixing_weight= 0.308583711335
<DFT>  Uele   =  -30.474797622662  dUele     =   0.103247652244
<DFT>  NormRD =    0.108462190618  Criterion =   0.000000001000

******************* MD= 1  SCF= 6 *******************
<Poisson>  Poisson's equation using FFT...
<Set_Hamiltonian>  Hamiltonian matrix for VNA+dVH+Vxc...
<Band>  Solving the eigenvalue problem...
 KGrids1:  -0.47500  -0.42500  -0.37500  -0.32500  -0.27500  -0.22500  -0.17500  -0.12500  -0.07500  -0.02500   0.02500   0.07500   0.12500   0.17500   0.22500   0.27500   0.32500   0.37500   0.42500   0.47500 
 KGrids2:  -0.47500  -0.42500  -0.37500  -0.32500  -0.27500  -0.22500  -0.17500  -0.12500  -0.07500  -0.02500   0.02500   0.07500   0.12500   0.17500   0.22500   0.27500   0.32500   0.37500   0.42500   0.47500 
 KGrids3:  -0.47500  -0.42500  -0.37500  -0.32500  -0.27500  -0.22500  -0.17500  -0.12500  -0.07500  -0.02500   0.02500   0.07500   0.12500   0.17500   0.22500   0.27500   0.32500   0.37500   0.42500   0.47500 
<Band_DFT>  Eigen, time=0.757520
<Band_DFT>  DM, time=1.890678
    1   Fe  MulP   8.0579   5.9421 sum  14.0000 diff   2.1158
    2   Fe  MulP   8.0579   5.9421 sum  14.0000 diff   2.1158
 Sum of MulP: up   =    16.11584 down          =    11.88416
              total=    28.00000 ideal(neutral)=    28.00000
<DFT>  Total Spin Moment (muB) =  4.231671286600
<DFT>  Mixing_weight= 0.099776113895
<DFT>  Uele   =  -30.548815946110  dUele     =   0.074018323447
<DFT>  NormRD =    0.156905521761  Criterion =   0.000000001000

******************* MD= 1  SCF= 7 *******************
<Poisson>  Poisson's equation using FFT...
<Set_Hamiltonian>  Hamiltonian matrix for VNA+dVH+Vxc...
<Band>  Solving the eigenvalue problem...
 KGrids1:  -0.47500  -0.42500  -0.37500  -0.32500  -0.27500  -0.22500  -0.17500  -0.12500  -0.07500  -0.02500   0.02500   0.07500   0.12500   0.17500   0.22500   0.27500   0.32500   0.37500   0.42500   0.47500 
 KGrids2:  -0.47500  -0.42500  -0.37500  -0.32500  -0.27500  -0.22500  -0.17500  -0.12500  -0.07500  -0.02500   0.02500   0.07500   0.12500   0.17500   0.22500   0.27500   0.32500   0.37500   0.42500   0.47500 
 KGrids3:  -0.47500  -0.42500  -0.37500  -0.32500  -0.27500  -0.22500  -0.17500  -0.12500  -0.07500  -0.02500   0.02500   0.07500   0.12500   0.17500   0.22500   0.27500   0.32500   0.37500   0.42500   0.47500 
<Band_DFT>  Eigen, time=0.682379
<Band_DFT>  DM, time=1.922876
    1   Fe  MulP   8.0602   5.9398 sum  14.0000 diff   2.1203
    2   Fe  MulP   8.0602   5.9398 sum  14.0000 diff   2.1203
 Sum of MulP: up   =    16.12032 down          =    11.87968
              total=    28.00000 ideal(neutral)=    28.00000
<DFT>  Total Spin Moment (muB) =  4.240641227310
<DFT>  Mixing_weight= 0.045724634155
<DFT>  Uele   =  -30.683199343874  dUele     =   0.134383397765
<DFT>  NormRD =    0.170595237045  Criterion =   0.000000001000

******************* MD= 1  SCF= 8 *******************
<Poisson>  Poisson's equation using FFT...
<Set_Hamiltonian>  Hamiltonian matrix for VNA+dVH+Vxc...
<Band>  Solving the eigenvalue problem...
 KGrids1:  -0.47500  -0.42500  -0.37500  -0.32500  -0.27500  -0.22500  -0.17500  -0.12500  -0.07500  -0.02500   0.02500   0.07500   0.12500   0.17500   0.22500   0.27500   0.32500   0.37500   0.42500   0.47500 
 KGrids2:  -0.47500  -0.42500  -0.37500  -0.32500  -0.27500  -0.22500  -0.17500  -0.12500  -0.07500  -0.02500   0.02500   0.07500   0.12500   0.17500   0.22500   0.27500   0.32500   0.37500   0.42500   0.47500 
 KGrids3:  -0.47500  -0.42500  -0.37500  -0.32500  -0.27500  -0.22500  -0.17500  -0.12500  -0.07500  -0.02500   0.02500   0.07500   0.12500   0.17500   0.22500   0.27500   0.32500   0.37500   0.42500   0.47500 
<Band_DFT>  Eigen, time=0.631800
<Band_DFT>  DM, time=1.829188
    1   Fe  MulP   8.0599   5.9401 sum  14.0000 diff   2.1198
    2   Fe  MulP   8.0599   5.9401 sum  14.0000 diff   2.1198
 Sum of MulP: up   =    16.11979 down          =    11.88021
              total=    28.00000 ideal(neutral)=    28.00000
<DFT>  Total Spin Moment (muB) =  4.239572810594
<DFT>  Mixing_weight= 0.316634139974
<DFT>  Uele   =  -30.662029338659  dUele     =   0.021170005215
<DFT>  NormRD =    0.157797512957  Criterion =   0.000000001000

******************* MD= 1  SCF= 9 *******************
<Poisson>  Poisson's equation using FFT...
<Set_Hamiltonian>  Hamiltonian matrix for VNA+dVH+Vxc...
<Band>  Solving the eigenvalue problem...
 KGrids1:  -0.47500  -0.42500  -0.37500  -0.32500  -0.27500  -0.22500  -0.17500  -0.12500  -0.07500  -0.02500   0.02500   0.07500   0.12500   0.17500   0.22500   0.27500   0.32500   0.37500   0.42500   0.47500 
 KGrids2:  -0.47500  -0.42500  -0.37500  -0.32500  -0.27500  -0.22500  -0.17500  -0.12500  -0.07500  -0.02500   0.02500   0.07500   0.12500   0.17500   0.22500   0.27500   0.32500   0.37500   0.42500   0.47500 
 KGrids3:  -0.47500  -0.42500  -0.37500  -0.32500  -0.27500  -0.22500  -0.17500  -0.12500  -0.07500  -0.02500   0.02500   0.07500   0.12500   0.17500   0.22500   0.27500   0.32500   0.37500   0.42500   0.47500 
<Band_DFT>  Eigen, time=0.750199
<Band_DFT>  DM, time=2.004216
    1   Fe  MulP   8.0592   5.9408 sum  14.0000 diff   2.1185
    2   Fe  MulP   8.0592   5.9408 sum  14.0000 diff   2.1185
 Sum of MulP: up   =    16.11849 down          =    11.88151
              total=    28.00000 ideal(neutral)=    28.00000
<DFT>  Total Spin Moment (muB) =  4.236975099311
<DFT>  Mixing_weight= 0.400000000000
<DFT>  Uele   =  -30.534469785820  dUele     =   0.127559552839
<DFT>  NormRD =    0.090203721062  Criterion =   0.000000001000

******************* MD= 1  SCF=10 *******************
<Poisson>  Poisson's equation using FFT...
<Set_Hamiltonian>  Hamiltonian matrix for VNA+dVH+Vxc...
<Band>  Solving the eigenvalue problem...
 KGrids1:  -0.47500  -0.42500  -0.37500  -0.32500  -0.27500  -0.22500  -0.17500  -0.12500  -0.07500  -0.02500   0.02500   0.07500   0.12500   0.17500   0.22500   0.27500   0.32500   0.37500   0.42500   0.47500 
 KGrids2:  -0.47500  -0.42500  -0.37500  -0.32500  -0.27500  -0.22500  -0.17500  -0.12500  -0.07500  -0.02500   0.02500   0.07500   0.12500   0.17500   0.22500   0.27500   0.32500   0.37500   0.42500   0.47500 
 KGrids3:  -0.47500  -0.42500  -0.37500  -0.32500  -0.27500  -0.22500  -0.17500  -0.12500  -0.07500  -0.02500   0.02500   0.07500   0.12500   0.17500   0.22500   0.27500   0.32500   0.37500   0.42500   0.47500 
<Band_DFT>  Eigen, time=0.741402
<Band_DFT>  DM, time=1.933916
    1   Fe  MulP   8.0629   5.9371 sum  14.0000 diff   2.1257
    2   Fe  MulP   8.0629   5.9371 sum  14.0000 diff   2.1257
 Sum of MulP: up   =    16.12570 down          =    11.87430
              total=    28.00000 ideal(neutral)=    28.00000
<DFT>  Total Spin Moment (muB) =  4.251407712297
<DFT>  Mixing_weight= 0.400000000000
<DFT>  Uele   =  -30.516148142954  dUele     =   0.018321642867
<DFT>  NormRD =    0.066159537999  Criterion =   0.000000001000

******************* MD= 1  SCF=11 *******************
<Poisson>  Poisson's equation using FFT...
<Set_Hamiltonian>  Hamiltonian matrix for VNA+dVH+Vxc...
<Band>  Solving the eigenvalue problem...
 KGrids1:  -0.47500  -0.42500  -0.37500  -0.32500  -0.27500  -0.22500  -0.17500  -0.12500  -0.07500  -0.02500   0.02500   0.07500   0.12500   0.17500   0.22500   0.27500   0.32500   0.37500   0.42500   0.47500 
 KGrids2:  -0.47500  -0.42500  -0.37500  -0.32500  -0.27500  -0.22500  -0.17500  -0.12500  -0.07500  -0.02500   0.02500   0.07500   0.12500   0.17500   0.22500   0.27500   0.32500   0.37500   0.42500   0.47500 
 KGrids3:  -0.47500  -0.42500  -0.37500  -0.32500  -0.27500  -0.22500  -0.17500  -0.12500  -0.07500  -0.02500   0.02500   0.07500   0.12500   0.17500   0.22500   0.27500   0.32500   0.37500   0.42500   0.47500 
<Band_DFT>  Eigen, time=0.664140
<Band_DFT>  DM, time=1.730234
    1   Fe  MulP   8.0660   5.9340 sum  14.0000 diff   2.1320
    2   Fe  MulP   8.0660   5.9340 sum  14.0000 diff   2.1320
 Sum of MulP: up   =    16.13195 down          =    11.86805
              total=    28.00000 ideal(neutral)=    28.00000
<DFT>  Total Spin Moment (muB) =  4.263902204930
<DFT>  Mixing_weight= 0.400000000000
<DFT>  Uele   =  -30.516938549382  dUele     =   0.000790406428
<DFT>  NormRD =    0.051173044434  Criterion =   0.000000001000

******************* MD= 1  SCF=12 *******************
<Poisson>  Poisson's equation using FFT...
<Set_Hamiltonian>  Hamiltonian matrix for VNA+dVH+Vxc...
<Band>  Solving the eigenvalue problem...
 KGrids1:  -0.47500  -0.42500  -0.37500  -0.32500  -0.27500  -0.22500  -0.17500  -0.12500  -0.07500  -0.02500   0.02500   0.07500   0.12500   0.17500   0.22500   0.27500   0.32500   0.37500   0.42500   0.47500 
 KGrids2:  -0.47500  -0.42500  -0.37500  -0.32500  -0.27500  -0.22500  -0.17500  -0.12500  -0.07500  -0.02500   0.02500   0.07500   0.12500   0.17500   0.22500   0.27500   0.32500   0.37500   0.42500   0.47500 
 KGrids3:  -0.47500  -0.42500  -0.37500  -0.32500  -0.27500  -0.22500  -0.17500  -0.12500  -0.07500  -0.02500   0.02500   0.07500   0.12500   0.17500   0.22500   0.27500   0.32500   0.37500   0.42500   0.47500 
<Band_DFT>  Eigen, time=0.810726
<Band_DFT>  DM, time=1.741583
    1   Fe  MulP   8.0736   5.9264 sum  14.0000 diff   2.1472
    2   Fe  MulP   8.0736   5.9264 sum  14.0000 diff   2.1472
 Sum of MulP: up   =    16.14718 down          =    11.85282
              total=    28.00000 ideal(neutral)=    28.00000
<DFT>  Total Spin Moment (muB) =  4.294350977342
<DFT>  Mixing_weight= 0.400000000000
<DFT>  Uele   =  -30.508807009672  dUele     =   0.008131539710
<DFT>  NormRD =    0.009479230074  Criterion =   0.000000001000

******************* MD= 1  SCF=13 *******************
<Poisson>  Poisson's equation using FFT...
<Set_Hamiltonian>  Hamiltonian matrix for VNA+dVH+Vxc...
<Band>  Solving the eigenvalue problem...
 KGrids1:  -0.47500  -0.42500  -0.37500  -0.32500  -0.27500  -0.22500  -0.17500  -0.12500  -0.07500  -0.02500   0.02500   0.07500   0.12500   0.17500   0.22500   0.27500   0.32500   0.37500   0.42500   0.47500 
 KGrids2:  -0.47500  -0.42500  -0.37500  -0.32500  -0.27500  -0.22500  -0.17500  -0.12500  -0.07500  -0.02500   0.02500   0.07500   0.12500   0.17500   0.22500   0.27500   0.32500   0.37500   0.42500   0.47500 
 KGrids3:  -0.47500  -0.42500  -0.37500  -0.32500  -0.27500  -0.22500  -0.17500  -0.12500  -0.07500  -0.02500   0.02500   0.07500   0.12500   0.17500   0.22500   0.27500   0.32500   0.37500   0.42500   0.47500 
<Band_DFT>  Eigen, time=0.745031
<Band_DFT>  DM, time=1.853909
    1   Fe  MulP   8.0743   5.9257 sum  14.0000 diff   2.1486
    2   Fe  MulP   8.0743   5.9257 sum  14.0000 diff   2.1486
 Sum of MulP: up   =    16.14863 down          =    11.85137
              total=    28.00000 ideal(neutral)=    28.00000
<DFT>  Total Spin Moment (muB) =  4.297269125572
<DFT>  Mixing_weight= 0.400000000000
<DFT>  Uele   =  -30.526149904648  dUele     =   0.017342894976
<DFT>  NormRD =    0.009925375274  Criterion =   0.000000001000

******************* MD= 1  SCF=14 *******************
<Poisson>  Poisson's equation using FFT...
<Set_Hamiltonian>  Hamiltonian matrix for VNA+dVH+Vxc...
<Band>  Solving the eigenvalue problem...
 KGrids1:  -0.47500  -0.42500  -0.37500  -0.32500  -0.27500  -0.22500  -0.17500  -0.12500  -0.07500  -0.02500   0.02500   0.07500   0.12500   0.17500   0.22500   0.27500   0.32500   0.37500   0.42500   0.47500 
 KGrids2:  -0.47500  -0.42500  -0.37500  -0.32500  -0.27500  -0.22500  -0.17500  -0.12500  -0.07500  -0.02500   0.02500   0.07500   0.12500   0.17500   0.22500   0.27500   0.32500   0.37500   0.42500   0.47500 
 KGrids3:  -0.47500  -0.42500  -0.37500  -0.32500  -0.27500  -0.22500  -0.17500  -0.12500  -0.07500  -0.02500   0.02500   0.07500   0.12500   0.17500   0.22500   0.27500   0.32500   0.37500   0.42500   0.47500 
<Band_DFT>  Eigen, time=0.724266
<Band_DFT>  DM, time=1.891408
    1   Fe  MulP   8.0741   5.9259 sum  14.0000 diff   2.1482
    2   Fe  MulP   8.0741   5.9259 sum  14.0000 diff   2.1482
 Sum of MulP: up   =    16.14825 down          =    11.85175
              total=    28.00000 ideal(neutral)=    28.00000
<DFT>  Total Spin Moment (muB) =  4.296492713604
<DFT>  Mixing_weight= 0.400000000000
<DFT>  Uele   =  -30.508933332515  dUele     =   0.017216572133
<DFT>  NormRD =    0.002742879952  Criterion =   0.000000001000

******************* MD= 1  SCF=15 *******************
<Poisson>  Poisson's equation using FFT...
<Set_Hamiltonian>  Hamiltonian matrix for VNA+dVH+Vxc...
<Band>  Solving the eigenvalue problem...
 KGrids1:  -0.47500  -0.42500  -0.37500  -0.32500  -0.27500  -0.22500  -0.17500  -0.12500  -0.07500  -0.02500   0.02500   0.07500   0.12500   0.17500   0.22500   0.27500   0.32500   0.37500   0.42500   0.47500 
 KGrids2:  -0.47500  -0.42500  -0.37500  -0.32500  -0.27500  -0.22500  -0.17500  -0.12500  -0.07500  -0.02500   0.02500   0.07500   0.12500   0.17500   0.22500   0.27500   0.32500   0.37500   0.42500   0.47500 
 KGrids3:  -0.47500  -0.42500  -0.37500  -0.32500  -0.27500  -0.22500  -0.17500  -0.12500  -0.07500  -0.02500   0.02500   0.07500   0.12500   0.17500   0.22500   0.27500   0.32500   0.37500   0.42500   0.47500 
<Band_DFT>  Eigen, time=0.607221
<Band_DFT>  DM, time=1.893334
    1   Fe  MulP   8.0744   5.9256 sum  14.0000 diff   2.1488
    2   Fe  MulP   8.0744   5.9257 sum  14.0000 diff   2.1487
 Sum of MulP: up   =    16.14875 down          =    11.85125
              total=    28.00000 ideal(neutral)=    28.00000
<DFT>  Total Spin Moment (muB) =  4.297503824574
<DFT>  Mixing_weight= 0.400000000000
<DFT>  Uele   =  -30.512956187699  dUele     =   0.004022855184
<DFT>  NormRD =    0.000590446363  Criterion =   0.000000001000

******************* MD= 1  SCF=16 *******************
<Poisson>  Poisson's equation using FFT...
<Set_Hamiltonian>  Hamiltonian matrix for VNA+dVH+Vxc...
<Band>  Solving the eigenvalue problem...
 KGrids1:  -0.47500  -0.42500  -0.37500  -0.32500  -0.27500  -0.22500  -0.17500  -0.12500  -0.07500  -0.02500   0.02500   0.07500   0.12500   0.17500   0.22500   0.27500   0.32500   0.37500   0.42500   0.47500 
 KGrids2:  -0.47500  -0.42500  -0.37500  -0.32500  -0.27500  -0.22500  -0.17500  -0.12500  -0.07500  -0.02500   0.02500   0.07500   0.12500   0.17500   0.22500   0.27500   0.32500   0.37500   0.42500   0.47500 
 KGrids3:  -0.47500  -0.42500  -0.37500  -0.32500  -0.27500  -0.22500  -0.17500  -0.12500  -0.07500  -0.02500   0.02500   0.07500   0.12500   0.17500   0.22500   0.27500   0.32500   0.37500   0.42500   0.47500 
<Band_DFT>  Eigen, time=0.684643
<Band_DFT>  DM, time=1.877733
    1   Fe  MulP   8.0747   5.9262 sum  14.0009 diff   2.1484
    2   Fe  MulP   8.0742   5.9249 sum  13.9991 diff   2.1493
 Sum of MulP: up   =    16.14887 down          =    11.85113
              total=    28.00000 ideal(neutral)=    28.00000
<DFT>  Total Spin Moment (muB) =  4.297749154827
<DFT>  Mixing_weight= 0.400000000000
<DFT>  Uele   =  -30.512761783469  dUele     =   0.000194404230
<DFT>  NormRD =    0.000599175548  Criterion =   0.000000001000

******************* MD= 1  SCF=17 *******************
<Poisson>  Poisson's equation using FFT...
<Set_Hamiltonian>  Hamiltonian matrix for VNA+dVH+Vxc...
<Band>  Solving the eigenvalue problem...
 KGrids1:  -0.47500  -0.42500  -0.37500  -0.32500  -0.27500  -0.22500  -0.17500  -0.12500  -0.07500  -0.02500   0.02500   0.07500   0.12500   0.17500   0.22500   0.27500   0.32500   0.37500   0.42500   0.47500 
 KGrids2:  -0.47500  -0.42500  -0.37500  -0.32500  -0.27500  -0.22500  -0.17500  -0.12500  -0.07500  -0.02500   0.02500   0.07500   0.12500   0.17500   0.22500   0.27500   0.32500   0.37500   0.42500   0.47500 
 KGrids3:  -0.47500  -0.42500  -0.37500  -0.32500  -0.27500  -0.22500  -0.17500  -0.12500  -0.07500  -0.02500   0.02500   0.07500   0.12500   0.17500   0.22500   0.27500   0.32500   0.37500   0.42500   0.47500 
<Band_DFT>  Eigen, time=0.733704
<Band_DFT>  DM, time=1.822136
    1   Fe  MulP   8.0743   5.9252 sum  13.9995 diff   2.1491
    2   Fe  MulP   8.0746   5.9260 sum  14.0005 diff   2.1486
 Sum of MulP: up   =    16.14887 down          =    11.85113
              total=    28.00000 ideal(neutral)=    28.00000
<DFT>  Total Spin Moment (muB) =  4.297745876522
<DFT>  Mixing_weight= 0.400000000000
<DFT>  Uele   =  -30.512757467174  dUele     =   0.000004316295
<DFT>  NormRD =    0.000375119994  Criterion =   0.000000001000

******************* MD= 1  SCF=18 *******************
<Poisson>  Poisson's equation using FFT...
<Set_Hamiltonian>  Hamiltonian matrix for VNA+dVH+Vxc...
<Band>  Solving the eigenvalue problem...
 KGrids1:  -0.47500  -0.42500  -0.37500  -0.32500  -0.27500  -0.22500  -0.17500  -0.12500  -0.07500  -0.02500   0.02500   0.07500   0.12500   0.17500   0.22500   0.27500   0.32500   0.37500   0.42500   0.47500 
 KGrids2:  -0.47500  -0.42500  -0.37500  -0.32500  -0.27500  -0.22500  -0.17500  -0.12500  -0.07500  -0.02500   0.02500   0.07500   0.12500   0.17500   0.22500   0.27500   0.32500   0.37500   0.42500   0.47500 
 KGrids3:  -0.47500  -0.42500  -0.37500  -0.32500  -0.27500  -0.22500  -0.17500  -0.12500  -0.07500  -0.02500   0.02500   0.07500   0.12500   0.17500   0.22500   0.27500   0.32500   0.37500   0.42500   0.47500 
<Band_DFT>  Eigen, time=0.746486
<Band_DFT>  DM, time=1.786067
    1   Fe  MulP   8.0744   5.9256 sum  14.0000 diff   2.1489
    2   Fe  MulP   8.0744   5.9256 sum  14.0000 diff   2.1489
 Sum of MulP: up   =    16.14885 down          =    11.85115
              total=    28.00000 ideal(neutral)=    28.00000
<DFT>  Total Spin Moment (muB) =  4.297709125434
<DFT>  Mixing_weight= 0.400000000000
<DFT>  Uele   =  -30.512733606076  dUele     =   0.000023861098
<DFT>  NormRD =    0.000006656554  Criterion =   0.000000001000

******************* MD= 1  SCF=19 *******************
<Poisson>  Poisson's equation using FFT...
<Set_Hamiltonian>  Hamiltonian matrix for VNA+dVH+Vxc...
<Band>  Solving the eigenvalue problem...
 KGrids1:  -0.47500  -0.42500  -0.37500  -0.32500  -0.27500  -0.22500  -0.17500  -0.12500  -0.07500  -0.02500   0.02500   0.07500   0.12500   0.17500   0.22500   0.27500   0.32500   0.37500   0.42500   0.47500 
 KGrids2:  -0.47500  -0.42500  -0.37500  -0.32500  -0.27500  -0.22500  -0.17500  -0.12500  -0.07500  -0.02500   0.02500   0.07500   0.12500   0.17500   0.22500   0.27500   0.32500   0.37500   0.42500   0.47500 
 KGrids3:  -0.47500  -0.42500  -0.37500  -0.32500  -0.27500  -0.22500  -0.17500  -0.12500  -0.07500  -0.02500   0.02500   0.07500   0.12500   0.17500   0.22500   0.27500   0.32500   0.37500   0.42500   0.47500 
<Band_DFT>  Eigen, time=0.676987
<Band_DFT>  DM, time=1.853434
    1   Fe  MulP   8.0744   5.9256 sum  14.0000 diff   2.1489
    2   Fe  MulP   8.0744   5.9256 sum  14.0000 diff   2.1489
 Sum of MulP: up   =    16.14886 down          =    11.85114
              total=    28.00000 ideal(neutral)=    28.00000
<DFT>  Total Spin Moment (muB) =  4.297710628206
<DFT>  Mixing_weight= 0.400000000000
<DFT>  Uele   =  -30.512738011129  dUele     =   0.000004405053
<DFT>  NormRD =    0.000001517793  Criterion =   0.000000001000

******************* MD= 1  SCF=20 *******************
<Poisson>  Poisson's equation using FFT...
<Set_Hamiltonian>  Hamiltonian matrix for VNA+dVH+Vxc...
<Band>  Solving the eigenvalue problem...
 KGrids1:  -0.47500  -0.42500  -0.37500  -0.32500  -0.27500  -0.22500  -0.17500  -0.12500  -0.07500  -0.02500   0.02500   0.07500   0.12500   0.17500   0.22500   0.27500   0.32500   0.37500   0.42500   0.47500 
 KGrids2:  -0.47500  -0.42500  -0.37500  -0.32500  -0.27500  -0.22500  -0.17500  -0.12500  -0.07500  -0.02500   0.02500   0.07500   0.12500   0.17500   0.22500   0.27500   0.32500   0.37500   0.42500   0.47500 
 KGrids3:  -0.47500  -0.42500  -0.37500  -0.32500  -0.27500  -0.22500  -0.17500  -0.12500  -0.07500  -0.02500   0.02500   0.07500   0.12500   0.17500   0.22500   0.27500   0.32500   0.37500   0.42500   0.47500 
<Band_DFT>  Eigen, time=0.759233
<Band_DFT>  DM, time=1.810920
    1   Fe  MulP   8.0744   5.9256 sum  14.0000 diff   2.1489
    2   Fe  MulP   8.0744   5.9256 sum  14.0000 diff   2.1489
 Sum of MulP: up   =    16.14886 down          =    11.85114
              total=    28.00000 ideal(neutral)=    28.00000
<DFT>  Total Spin Moment (muB) =  4.297711060820
<DFT>  Mixing_weight= 0.400000000000
<DFT>  Uele   =  -30.512737804369  dUele     =   0.000000206761
<DFT>  NormRD =    0.000000260363  Criterion =   0.000000001000

******************* MD= 1  SCF=21 *******************
<Poisson>  Poisson's equation using FFT...
<Set_Hamiltonian>  Hamiltonian matrix for VNA+dVH+Vxc...
<Band>  Solving the eigenvalue problem...
 KGrids1:  -0.47500  -0.42500  -0.37500  -0.32500  -0.27500  -0.22500  -0.17500  -0.12500  -0.07500  -0.02500   0.02500   0.07500   0.12500   0.17500   0.22500   0.27500   0.32500   0.37500   0.42500   0.47500 
 KGrids2:  -0.47500  -0.42500  -0.37500  -0.32500  -0.27500  -0.22500  -0.17500  -0.12500  -0.07500  -0.02500   0.02500   0.07500   0.12500   0.17500   0.22500   0.27500   0.32500   0.37500   0.42500   0.47500 
 KGrids3:  -0.47500  -0.42500  -0.37500  -0.32500  -0.27500  -0.22500  -0.17500  -0.12500  -0.07500  -0.02500   0.02500   0.07500   0.12500   0.17500   0.22500   0.27500   0.32500   0.37500   0.42500   0.47500 
<Band_DFT>  Eigen, time=0.798532
<Band_DFT>  DM, time=1.876733
    1   Fe  MulP   8.0744   5.9256 sum  14.0000 diff   2.1489
    2   Fe  MulP   8.0744   5.9256 sum  14.0000 diff   2.1489
 Sum of MulP: up   =    16.14886 down          =    11.85114
              total=    28.00000 ideal(neutral)=    28.00000
<DFT>  Total Spin Moment (muB) =  4.297711129939
<DFT>  Mixing_weight= 0.400000000000
<DFT>  Uele   =  -30.512737789341  dUele     =   0.000000015028
<DFT>  NormRD =    0.000000060230  Criterion =   0.000000001000

******************* MD= 1  SCF=22 *******************
<Poisson>  Poisson's equation using FFT...
<Set_Hamiltonian>  Hamiltonian matrix for VNA+dVH+Vxc...
<Band>  Solving the eigenvalue problem...
 KGrids1:  -0.47500  -0.42500  -0.37500  -0.32500  -0.27500  -0.22500  -0.17500  -0.12500  -0.07500  -0.02500   0.02500   0.07500   0.12500   0.17500   0.22500   0.27500   0.32500   0.37500   0.42500   0.47500 
 KGrids2:  -0.47500  -0.42500  -0.37500  -0.32500  -0.27500  -0.22500  -0.17500  -0.12500  -0.07500  -0.02500   0.02500   0.07500   0.12500   0.17500   0.22500   0.27500   0.32500   0.37500   0.42500   0.47500 
 KGrids3:  -0.47500  -0.42500  -0.37500  -0.32500  -0.27500  -0.22500  -0.17500  -0.12500  -0.07500  -0.02500   0.02500   0.07500   0.12500   0.17500   0.22500   0.27500   0.32500   0.37500   0.42500   0.47500 
<Band_DFT>  Eigen, time=0.760008
<Band_DFT>  DM, time=1.968508
    1   Fe  MulP   8.0744   5.9256 sum  14.0000 diff   2.1489
    2   Fe  MulP   8.0744   5.9256 sum  14.0000 diff   2.1489
 Sum of MulP: up   =    16.14886 down          =    11.85114
              total=    28.00000 ideal(neutral)=    28.00000
<DFT>  Total Spin Moment (muB) =  4.297711151446
<DFT>  Mixing_weight= 0.400000000000
<DFT>  Uele   =  -30.512737793901  dUele     =   0.000000004561
<DFT>  NormRD =    0.000000001496  Criterion =   0.000000001000

******************* MD= 1  SCF=23 *******************
<Poisson>  Poisson's equation using FFT...
<Set_Hamiltonian>  Hamiltonian matrix for VNA+dVH+Vxc...
<Band>  Solving the eigenvalue problem...
 KGrids1:  -0.47500  -0.42500  -0.37500  -0.32500  -0.27500  -0.22500  -0.17500  -0.12500  -0.07500  -0.02500   0.02500   0.07500   0.12500   0.17500   0.22500   0.27500   0.32500   0.37500   0.42500   0.47500 
 KGrids2:  -0.47500  -0.42500  -0.37500  -0.32500  -0.27500  -0.22500  -0.17500  -0.12500  -0.07500  -0.02500   0.02500   0.07500   0.12500   0.17500   0.22500   0.27500   0.32500   0.37500   0.42500   0.47500 
 KGrids3:  -0.47500  -0.42500  -0.37500  -0.32500  -0.27500  -0.22500  -0.17500  -0.12500  -0.07500  -0.02500   0.02500   0.07500   0.12500   0.17500   0.22500   0.27500   0.32500   0.37500   0.42500   0.47500 
<Band_DFT>  Eigen, time=0.608622
<Band_DFT>  DM, time=1.970191
    1   Fe  MulP   8.0744   5.9256 sum  14.0000 diff   2.1489
    2   Fe  MulP   8.0744   5.9256 sum  14.0000 diff   2.1489
 Sum of MulP: up   =    16.14886 down          =    11.85114
              total=    28.00000 ideal(neutral)=    28.00000
<DFT>  Total Spin Moment (muB) =  4.297711151978
<DFT>  Mixing_weight= 0.400000000000
<DFT>  Uele   =  -30.512737793441  dUele     =   0.000000000461
<DFT>  NormRD =    0.000000000178  Criterion =   0.000000001000
<MD= 1>  Force calculation
  Force calculation #1
  Force calculation #2
  Force calculation #3
  Force calculation #4
  Force calculation #5
<MD= 1>  Total Energy
  Force calculation #6
  Force calculation #7

*******************************************************
                  Dipole moment (Debye)                 
*******************************************************

 Absolute D      148.76658056

                      Dx                Dy                Dz
 Total            -85.89042541      -85.89042529      -85.89042529
 Core              93.60153184       93.60153184       93.60153184
 Electron        -179.49195725     -179.49195714     -179.49195714
 Back ground       -0.00000000       -0.00000000       -0.00000000

*******************************************************
                Total Energy (Hartree) at MD = 1        
*******************************************************

  Uele  =     -30.512737793441

  Ukin  =     106.988954657527
  UH0   =   -2668.148949540263
  UH1   =       0.013106965206
  Una   =     -81.662689684894
  Unl   =     -25.539879935349
  Uxc0  =     -15.771782427294
  Uxc1  =     -12.060545943156
  Ucore =    2517.032568157043
  Uhub  =       0.000000000000
  Ucs   =       0.000000000000
  Uzs   =       0.000000000000
  Uzo   =       0.000000000000
  Uef   =       0.000000000000
  UvdW  =       0.000000000000
  Utot  =    -179.149217751180

  Note:

  Utot = Ukin+UH0+UH1+Una+Unl+Uxc0+Uxc1+Ucore+Uhub+Ucs+Uzs+Uzo+Uef+UvdW

  Uele:   band energy
  Ukin:   kinetic energy
  UH0:    electric part of screened Coulomb energy
  UH1:    difference electron-electron Coulomb energy
  Una:    neutral atom potential energy
  Unl:    non-local potential energy
  Uxc0:   exchange-correlation energy for alpha spin
  Uxc1:   exchange-correlation energy for beta spin
  Ucore:  core-core Coulomb energy
  Uhub:   LDA+U energy
  Ucs:    constraint energy for spin orientation
  Uzs:    Zeeman term for spin magnetic moment
  Uzo:    Zeeman term for orbital magnetic moment
  Uef:    electric energy by electric field
  UvdW:   semi-empirical vdW energy 

  (see also PRB 72, 045121(2005) for the energy contributions)


*******************************************************
           Computational times (s) at MD = 1            
*******************************************************

  DFT in total      =  153.74211

  Set_OLP_Kin       =    1.81875
  Set_Nonlocal      =    3.93527
  Set_ProExpn_VNA   =    6.23103
  Set_Hamiltonian   =   34.37247
  Poisson           =    0.08817
  diagonalization   =   78.50279
  Mixing_DM         =    0.33855
  Force             =    6.21015
  Total_Energy      =    3.80428
  Set_Aden_Grid     =    0.11203
  Set_Orbitals_Grid =    0.65806
  Set_Density_Grid  =   17.52095
  RestartFileDFT    =    0.04128
  Mulliken_Charge   =    0.02080
  FFT(2D)_Density   =    0.00000
================ MD_switch 0 
================ MD_switch 0 
================ MD_switch 0 
================ MD_switch 0 
================ MD_switch 0 
================ MD_switch 0 
================ MD_switch 0 
================ MD_switch 0 
================ MD_switch 0 
================ MD_switch 0 
================ MD_switch 0 
================ MD_switch 0 
================ MD_switch 0 
================ MD_switch 0 
================ MD_switch 0 
================ MD_switch 0 
================ MD_switch 0 
================ MD_switch 0 
================ MD_switch 0 
================ MD_switch 0 
================ MD_switch 0 
================ MD_switch 0 
================ MD_switch 0 
================ MD_switch 0 
================ MD_switch 0 
================ MD_switch 0 
================ MD_switch 0 

*******************************************************
             MD or geometry opt. at MD = 1              
*******************************************************

================ MD_switch 0 

outputting data on grids to files...

Save the scfout file (./fe.scfout)

***********************************************************
***********************************************************
               Computational Time (second)                 
***********************************************************
***********************************************************

                               Min_ID   Min_Time       Max_ID   Max_Time
   Total Computational Time =     8      158.998          0      161.740
   readfile                 =     5        2.810         13        2.814
   truncation               =     0        0.000          0        0.000
   MD_pac                   =     0        0.002         26        0.003
   OutData                  =    25        0.000          0        0.001
   DFT                      =    23      153.545          0      153.742

*** In DFT ***

   Set_OLP_Kin              =    21        0.214          1        1.896
   Set_Nonlocal             =     1        3.858         21        5.540
   Set_ProExpn_VNA          =    12        1.997          0        6.231
   Set_Hamiltonian          =    15       34.303         16       34.374
   Poisson                  =     7        0.088         25        0.088
   Diagonalization          =    12       78.503          1       78.504
   Mixing_DM                =     7        0.338         15        0.346
   Force                    =    11        6.210         20        6.210
   Total_Energy             =    27        3.388          0        3.804
   Set_Aden_Grid            =     0        0.112         15        4.358
   Set_Orbitals_Grid        =     3        0.000          1        0.688
   Set_Density_Grid         =    15       17.506         24       17.522
   RestartFileDFT           =     8        0.027          0        0.041
   Mulliken_Charge          =     3        0.020         20        0.021
   FFT(2D)_Density          =     0        0.000          0        0.000
   Others                   =     1        0.067         11        1.043

The calculation was normally finished.

The number of threads in each node for OpenMP parallelization is 1.


*******************************************************
*******************************************************
 Welcome to OpenMX   Ver. 3.8                           
 Copyright (C), 2002-2014, T. Ozaki                    
 OpenMX comes with ABSOLUTELY NO WARRANTY.             
 This is free software, and you are welcome to         
 redistribute it under the constitution of the GNU-GPL.
*******************************************************
*******************************************************



<Input_std>  Your input file was normally read.
<Input_std>  The system includes 1 species and 2 atoms.

*******************************************************
                     PAO and VPS                       
*******************************************************

<SetPara_DFT>  PAOs of species Fe were normally found.
<SetPara_DFT>  VPSs of species Fe were normally found.
               Fe_PBE13S.vps is j-dependent.
               In case of scf.SpinOrbit.Coupling=off,
               j-dependent pseudo potentials are averaged by j-degeneracy,
               which corresponds to a scalar relativistic treatment.

*******************************************************
     Fourier transform of PAO and projectors of VNL    
*******************************************************

<FT_PAO>          Fourier transform of pseudo atomic orbitals
<FT_NLP>          Fourier transform of non-local projectors
<FT_ProExpn_VNA>  Fourier transform of VNA separable projectors
<FT_VNA>          Fourier transform of VNA potentials
<FT_ProductPAO>   Fourier transform of product of PAOs

*******************************************************
  Allocation of atoms to proccesors at MD_iter=    1     
*******************************************************

 proc =   0  # of atoms=   1  estimated weight=         1.00000
 proc =   1  # of atoms=   1  estimated weight=         1.00000
 proc =   2  # of atoms=   0  estimated weight=         0.00000
 proc =   3  # of atoms=   0  estimated weight=         0.00000
 proc =   4  # of atoms=   0  estimated weight=         0.00000
 proc =   5  # of atoms=   0  estimated weight=         0.00000
 proc =   6  # of atoms=   0  estimated weight=         0.00000
 proc =   7  # of atoms=   0  estimated weight=         0.00000
 proc =   8  # of atoms=   0  estimated weight=         0.00000
 proc =   9  # of atoms=   0  estimated weight=         0.00000
 proc =  10  # of atoms=   0  estimated weight=         0.00000
 proc =  11  # of atoms=   0  estimated weight=         0.00000
 proc =  12  # of atoms=   0  estimated weight=         0.00000
 proc =  13  # of atoms=   0  estimated weight=         0.00000
 proc =  14  # of atoms=   0  estimated weight=         0.00000
 proc =  15  # of atoms=   0  estimated weight=         0.00000
 proc =  16  # of atoms=   0  estimated weight=         0.00000
 proc =  17  # of atoms=   0  estimated weight=         0.00000
 proc =  18  # of atoms=   0  estimated weight=         0.00000
 proc =  19  # of atoms=   0  estimated weight=         0.00000
 proc =  20  # of atoms=   0  estimated weight=         0.00000
 proc =  21  # of atoms=   0  estimated weight=         0.00000
 proc =  22  # of atoms=   0  estimated weight=         0.00000
 proc =  23  # of atoms=   0  estimated weight=         0.00000
 proc =  24  # of atoms=   0  estimated weight=         0.00000
 proc =  25  # of atoms=   0  estimated weight=         0.00000
 proc =  26  # of atoms=   0  estimated weight=         0.00000
 proc =  27  # of atoms=   0  estimated weight=         0.00000




*******************************************************
        Analysis of neighbors and setting of grids        
*******************************************************

TFNAN=     104   Average FNAN=  52.00000
TSNAN=       0   Average SNAN=   0.00000
<truncation> CpyCell= 1 ct_AN=   1 FNAN SNAN  52   0
<truncation> CpyCell= 1 ct_AN=   2 FNAN SNAN  52   0
TFNAN=     224   Average FNAN= 112.00000
TSNAN=       0   Average SNAN=   0.00000
<truncation> CpyCell= 2 ct_AN=   1 FNAN SNAN 112   0
<truncation> CpyCell= 2 ct_AN=   2 FNAN SNAN 112   0
TFNAN=     224   Average FNAN= 112.00000
TSNAN=       0   Average SNAN=   0.00000
<truncation> CpyCell= 3 ct_AN=   1 FNAN SNAN 112   0
<truncation> CpyCell= 3 ct_AN=   2 FNAN SNAN 112   0
TFNAN=     224   Average FNAN= 112.00000
TSNAN=       0   Average SNAN=   0.00000
<truncation> CpyCell= 3 ct_AN=   1 FNAN SNAN 112   0
<truncation> CpyCell= 3 ct_AN=   2 FNAN SNAN 112   0
<Check_System> The system is bulk.
lattice vectors (bohr)
A  =  5.260808179605,  0.000000000000,  0.000000000000
B  =  0.000000000000,  5.260808179605,  0.000000000000
C  =  0.000000000000,  0.000000000000,  5.260808179605
reciprocal lattice vectors (bohr^-1)
RA =  1.194338415823,  0.000000000000,  0.000000000000
RB =  0.000000000000,  1.194338415823,  0.000000000000
RC =  0.000000000000,  0.000000000000,  1.194338415823
Grid_Origin  0.000000000000  0.000000000000  0.000000000000
Cell_Volume =    145.598667477409 (Bohr^3)
GridVol     =      0.003120684745 (Bohr^3)
Grid_Origin  0.000000000000  0.000000000000  0.000000000000
Cell_Volume =    145.598667477409 (Bohr^3)
GridVol     =      0.003120684745 (Bohr^3)
<UCell_Box> Info. of cutoff energy and num. of grids
lattice vectors (bohr)
A  =  5.260808179605,  0.000000000000,  0.000000000000
B  =  0.000000000000,  5.260808179605,  0.000000000000
C  =  0.000000000000,  0.000000000000,  5.260808179605
reciprocal lattice vectors (bohr^-1)
RA =  1.194338415823,  0.000000000000,  0.000000000000
RB =  0.000000000000,  1.194338415823,  0.000000000000
RC =  0.000000000000,  0.000000000000,  1.194338415823
Required cutoff energy (Ryd) for 3D-grids = 500.0000
    Used cutoff energy (Ryd) for 3D-grids = 462.1679, 462.1679, 462.1679
Num. of grids of a-, b-, and c-axes = 36, 36, 36
Grid_Origin  0.000000000000  0.000000000000  0.000000000000
Cell_Volume =    145.598667477409 (Bohr^3)
GridVol     =      0.003120684745 (Bohr^3)
Cell vectors (bohr) of the grid cell (gtv)
  gtv_a =  0.146133560545,  0.000000000000,  0.000000000000
  gtv_b =  0.000000000000,  0.146133560545,  0.000000000000
  gtv_c =  0.000000000000,  0.000000000000,  0.146133560545
  |gtv_a| =  0.146133560545
  |gtv_b| =  0.146133560545
  |gtv_c| =  0.146133560545
Num. of grids overlapping with atom    1 = 289715
Num. of grids overlapping with atom    2 = 289715

*******************************************************
             SCF calculation at MD = 1                
*******************************************************

<MD= 1>  Calculation of the overlap matrix
<MD= 1>  Calculation of the nonlocal matrix
<MD= 1>  Calculation of the VNA projector matrix

******************* MD= 1  SCF= 1 *******************
<Restart>  Found restart files
<Poisson>  Poisson's equation using FFT...
<Band>  Solving the eigenvalue problem...
 KGrids1:  -0.47500  -0.42500  -0.37500  -0.32500  -0.27500  -0.22500  -0.17500  -0.12500  -0.07500  -0.02500   0.02500   0.07500   0.12500   0.17500   0.22500   0.27500   0.32500   0.37500   0.42500   0.47500 
 KGrids2:  -0.47500  -0.42500  -0.37500  -0.32500  -0.27500  -0.22500  -0.17500  -0.12500  -0.07500  -0.02500   0.02500   0.07500   0.12500   0.17500   0.22500   0.27500   0.32500   0.37500   0.42500   0.47500 
 KGrids3:  -0.47500  -0.42500  -0.37500  -0.32500  -0.27500  -0.22500  -0.17500  -0.12500  -0.07500  -0.02500   0.02500   0.07500   0.12500   0.17500   0.22500   0.27500   0.32500   0.37500   0.42500   0.47500 
<Band_DFT>  Eigen, time=0.687357
<Band_DFT>  DM, time=2.054609
    1   Fe  MulP   8.0744   5.9256 sum  14.0000 diff   2.1489
    2   Fe  MulP   8.0744   5.9256 sum  14.0000 diff   2.1489
 Sum of MulP: up   =    16.14886 down          =    11.85114
              total=    28.00000 ideal(neutral)=    28.00000
<DFT>  Total Spin Moment (muB) =  4.297711151909
<DFT>  Mixing_weight= 0.020000000000
<DFT>  Uele   =  -30.512737793453  dUele     =   1.000000000000
<DFT>  NormRD =    1.000000000000  Criterion =   0.000000001000

******************* MD= 1  SCF= 2 *******************
<Poisson>  Poisson's equation using FFT...
<Set_Hamiltonian>  Hamiltonian matrix for VNA+dVH+Vxc...
<Band>  Solving the eigenvalue problem...
 KGrids1:  -0.47500  -0.42500  -0.37500  -0.32500  -0.27500  -0.22500  -0.17500  -0.12500  -0.07500  -0.02500   0.02500   0.07500   0.12500   0.17500   0.22500   0.27500   0.32500   0.37500   0.42500   0.47500 
 KGrids2:  -0.47500  -0.42500  -0.37500  -0.32500  -0.27500  -0.22500  -0.17500  -0.12500  -0.07500  -0.02500   0.02500   0.07500   0.12500   0.17500   0.22500   0.27500   0.32500   0.37500   0.42500   0.47500 
 KGrids3:  -0.47500  -0.42500  -0.37500  -0.32500  -0.27500  -0.22500  -0.17500  -0.12500  -0.07500  -0.02500   0.02500   0.07500   0.12500   0.17500   0.22500   0.27500   0.32500   0.37500   0.42500   0.47500 
<Band_DFT>  Eigen, time=0.675381
<Band_DFT>  DM, time=1.830347
    1   Fe  MulP   8.0744   5.9256 sum  14.0000 diff   2.1489
    2   Fe  MulP   8.0744   5.9256 sum  14.0000 diff   2.1489
 Sum of MulP: up   =    16.14886 down          =    11.85114
              total=    28.00000 ideal(neutral)=    28.00000
<DFT>  Total Spin Moment (muB) =  4.297711151914
<DFT>  Mixing_weight= 0.020000000000
<DFT>  Uele   =  -30.512737793453  dUele     =   0.000000000000
<DFT>  NormRD =    0.000000000285  Criterion =   0.000000001000

******************* MD= 1  SCF= 3 *******************
<Poisson>  Poisson's equation using FFT...
<Set_Hamiltonian>  Hamiltonian matrix for VNA+dVH+Vxc...
<Band>  Solving the eigenvalue problem...
 KGrids1:  -0.47500  -0.42500  -0.37500  -0.32500  -0.27500  -0.22500  -0.17500  -0.12500  -0.07500  -0.02500   0.02500   0.07500   0.12500   0.17500   0.22500   0.27500   0.32500   0.37500   0.42500   0.47500 
 KGrids2:  -0.47500  -0.42500  -0.37500  -0.32500  -0.27500  -0.22500  -0.17500  -0.12500  -0.07500  -0.02500   0.02500   0.07500   0.12500   0.17500   0.22500   0.27500   0.32500   0.37500   0.42500   0.47500 
 KGrids3:  -0.47500  -0.42500  -0.37500  -0.32500  -0.27500  -0.22500  -0.17500  -0.12500  -0.07500  -0.02500   0.02500   0.07500   0.12500   0.17500   0.22500   0.27500   0.32500   0.37500   0.42500   0.47500 
<Band_DFT>  Eigen, time=0.754706
<Band_DFT>  DM, time=1.836711
    1   Fe  MulP   8.0744   5.9256 sum  14.0000 diff   2.1489
    2   Fe  MulP   8.0744   5.9256 sum  14.0000 diff   2.1489
 Sum of MulP: up   =    16.14886 down          =    11.85114
              total=    28.00000 ideal(neutral)=    28.00000
<DFT>  Total Spin Moment (muB) =  4.297711151914
<DFT>  Mixing_weight= 0.001000000000
<DFT>  Uele   =  -30.512737793453  dUele     =   0.000000000000
<DFT>  NormRD =    0.000000000193  Criterion =   0.000000001000
<MD= 1>  Force calculation
  Force calculation #1
  Force calculation #2
  Force calculation #3
  Force calculation #4
  Force calculation #5
<MD= 1>  Total Energy
  Force calculation #6
  Force calculation #7

*******************************************************
                  Dipole moment (Debye)                 
*******************************************************

 Absolute D      148.76658056

                      Dx                Dy                Dz
 Total            -85.89042541      -85.89042529      -85.89042529
 Core              93.60153184       93.60153184       93.60153184
 Electron        -179.49195725     -179.49195714     -179.49195714
 Back ground       -0.00000000       -0.00000000       -0.00000000

*******************************************************
                Total Energy (Hartree) at MD = 1        
*******************************************************

  Uele  =     -30.512737793453

  Ukin  =     106.988954657528
  UH0   =   -2668.148949540263
  UH1   =       0.013106965206
  Una   =     -81.662689684894
  Unl   =     -25.539879935350
  Uxc0  =     -15.771782427303
  Uxc1  =     -12.060545943148
  Ucore =    2517.032568157043
  Uhub  =       0.000000000000
  Ucs   =       0.000000000000
  Uzs   =       0.000000000000
  Uzo   =       0.000000000000
  Uef   =       0.000000000000
  UvdW  =       0.000000000000
  Utot  =    -179.149217751181

  Note:

  Utot = Ukin+UH0+UH1+Una+Unl+Uxc0+Uxc1+Ucore+Uhub+Ucs+Uzs+Uzo+Uef+UvdW

  Uele:   band energy
  Ukin:   kinetic energy
  UH0:    electric part of screened Coulomb energy
  UH1:    difference electron-electron Coulomb energy
  Una:    neutral atom potential energy
  Unl:    non-local potential energy
  Uxc0:   exchange-correlation energy for alpha spin
  Uxc1:   exchange-correlation energy for beta spin
  Ucore:  core-core Coulomb energy
  Uhub:   LDA+U energy
  Ucs:    constraint energy for spin orientation
  Uzs:    Zeeman term for spin magnetic moment
  Uzo:    Zeeman term for orbital magnetic moment
  Uef:    electric energy by electric field
  UvdW:   semi-empirical vdW energy 

  (see also PRB 72, 045121(2005) for the energy contributions)


*******************************************************
           Computational times (s) at MD = 1            
*******************************************************

  DFT in total      =   40.54977

  Set_OLP_Kin       =    2.15431
  Set_Nonlocal      =    4.04357
  Set_ProExpn_VNA   =    6.51667
  Set_Hamiltonian   =    4.48470
  Poisson           =    0.01280
  diagonalization   =   10.23174
  Mixing_DM         =    0.00495
  Force             =    7.45197
  Total_Energy      =    1.57659
  Set_Aden_Grid     =    0.04663
  Set_Orbitals_Grid =    0.59332
  Set_Density_Grid  =    3.22812
  RestartFileDFT    =    0.18007
  Mulliken_Charge   =    0.00400
  FFT(2D)_Density   =    0.00000
================ MD_switch 0 
================ MD_switch 0 
================ MD_switch 0 
================ MD_switch 0 
================ MD_switch 0 
================ MD_switch 0 
================ MD_switch 0 
================ MD_switch 0 
================ MD_switch 0 
================ MD_switch 0 
================ MD_switch 0 
================ MD_switch 0 
================ MD_switch 0 
================ MD_switch 0 
================ MD_switch 0 
================ MD_switch 0 
================ MD_switch 0 
================ MD_switch 0 
================ MD_switch 0 
================ MD_switch 0 
================ MD_switch 0 
================ MD_switch 0 
================ MD_switch 0 
================ MD_switch 0 
================ MD_switch 0 
================ MD_switch 0 
================ MD_switch 0 

*******************************************************
             MD or geometry opt. at MD = 1              
*******************************************************

================ MD_switch 0 

outputting data on grids to files...

Save the scfout file (./fe.scfout)

***********************************************************
***********************************************************
               Computational Time (second)                 
***********************************************************
***********************************************************

                               Min_ID   Min_Time       Max_ID   Max_Time
   Total Computational Time =    26       43.554          0       46.008
   readfile                 =     0        0.590         13        0.594
   truncation               =     0        0.000          0        0.000
   MD_pac                   =     0        0.002         15        0.003
   OutData                  =    23        0.000          0        0.001
   DFT                      =     0       40.550          4       40.753

*** In DFT ***

   Set_OLP_Kin              =     7        0.244          0        2.154
   Set_Nonlocal             =     0        4.044          7        5.954
   Set_ProExpn_VNA          =     6        2.294          0        6.517
   Set_Hamiltonian          =    23        4.454          7        4.485
   Poisson                  =     7        0.013         23        0.013
   Diagonalization          =    21       10.232         13       10.232
   Mixing_DM                =    25        0.004          5        0.005
   Force                    =    14        7.451         21        7.452
   Total_Energy             =    25        1.576         11        1.578
   Set_Aden_Grid            =     0        0.047          6        4.251
   Set_Orbitals_Grid        =     2        0.000          1        0.715
   Set_Density_Grid         =     9        3.226         24        3.228
   RestartFileDFT           =    15        0.043          3        0.742
   Mulliken_Charge          =    15        0.004         25        0.004
   FFT(2D)_Density          =     0        0.000          0        0.000
   Others                   =     0        0.020          4        0.921

The calculation was normally finished.
